(written by ASE)

2 atoms
1 atom types

0.0      3.4390000000000001  xlo xhi
0.0      3.4390000000000001  ylo yhi
0.0      3.4390000000000001  zlo zhi

Masses

     1      6.9399999982147245 # Li

Atoms # atomic

     1   1                       0                       0                       0
     2   1      1.7194999999999998      1.7194999999999998      1.7194999999999998
